LAMMPS Description

     420 atoms
     19 bonds

     2 atom types
     1 bond types

     0.0000 20.00000 xlo xhi
     0.0000 20.00000 ylo yhi
     0.0000 20.00000 zlo zhi

Masses
   
1     1
2     1

Atoms

1 1	1	0.0000 8.000 0.000 8.000
2 1	1	0.0000 8.000 1.000 8.000
3 1	2	0.0000 8.000 2.000 8.000
4 1	1	0.0000 8.000 3.000 8.000
5 1	1	0.0000 8.000 4.000 8.000
6 1	2	0.0000 8.000 5.000 8.000
7 1	2	0.0000 8.000 6.000 8.000
8 1	1	0.0000 8.000 7.000 8.000
9 1	2	0.0000 8.000 8.000 8.000
10 1	1	0.0000 8.000 9.000 8.000
11 1	1	0.0000 8.000 10.000 8.000
12 1	1	0.0000 7.000 10.000 8.000
13 1	1	0.0000 6.000 10.000 8.000
14 1	2	0.0000 5.000 10.000 8.000
15 1	2	0.0000 4.000 10.000 8.000
16 1	1	0.0000 3.000 10.000 8.000
17 1	1	0.0000 3.000 11.000 8.000
18 1	2	0.0000 3.000 12.000 8.000
19 1	1	0.0000 3.000 13.000 8.000
20 1	2	0.0000 3.000 14.000 8.000
21      2      1      0.0000      0.000      0.000      0.000
22      3      1      0.0000      0.000      1.000      0.000
23      4      1      0.0000      0.000      2.000      0.000
24      5      1      0.0000      0.000      3.000      0.000
25      6      1      0.0000      0.000      4.000      0.000
26      7      2      0.0000      0.000      5.000      0.000
27      8      2      0.0000      0.000      6.000      0.000
28      9      2      0.0000      0.000      7.000      0.000
29      10      2      0.0000      0.000      8.000      0.000
30      11      2      0.0000      0.000      9.000      0.000
31      12      1      0.0000      0.000      10.000      0.000
32      13      1      0.0000      0.000      11.000      0.000
33      14      1      0.0000      0.000      12.000      0.000
34      15      1      0.0000      0.000      13.000      0.000
35      16      1      0.0000      0.000      14.000      0.000
36      17      2      0.0000      0.000      15.000      0.000
37      18      2      0.0000      0.000      16.000      0.000
38      19      2      0.0000      0.000      17.000      0.000
39      20      2      0.0000      0.000      18.000      0.000
40      21      2      0.0000      0.000      19.000      0.000
41      22      1      0.0000      1.000      0.000      0.000
42      23      1      0.0000      1.000      1.000      0.000
43      24      1      0.0000      1.000      2.000      0.000
44      25      1      0.0000      1.000      3.000      0.000
45      26      1      0.0000      1.000      4.000      0.000
46      27      2      0.0000      1.000      5.000      0.000
47      28      2      0.0000      1.000      6.000      0.000
48      29      2      0.0000      1.000      7.000      0.000
49      30      2      0.0000      1.000      8.000      0.000
50      31      2      0.0000      1.000      9.000      0.000
51      32      1      0.0000      1.000      10.000      0.000
52      33      1      0.0000      1.000      11.000      0.000
53      34      1      0.0000      1.000      12.000      0.000
54      35      1      0.0000      1.000      13.000      0.000
55      36      1      0.0000      1.000      14.000      0.000
56      37      2      0.0000      1.000      15.000      0.000
57      38      2      0.0000      1.000      16.000      0.000
58      39      2      0.0000      1.000      17.000      0.000
59      40      2      0.0000      1.000      18.000      0.000
60      41      2      0.0000      1.000      19.000      0.000
61      42      1      0.0000      2.000      0.000      0.000
62      43      1      0.0000      2.000      1.000      0.000
63      44      1      0.0000      2.000      2.000      0.000
64      45      1      0.0000      2.000      3.000      0.000
65      46      1      0.0000      2.000      4.000      0.000
66      47      2      0.0000      2.000      5.000      0.000
67      48      2      0.0000      2.000      6.000      0.000
68      49      2      0.0000      2.000      7.000      0.000
69      50      2      0.0000      2.000      8.000      0.000
70      51      2      0.0000      2.000      9.000      0.000
71      52      1      0.0000      2.000      10.000      0.000
72      53      1      0.0000      2.000      11.000      0.000
73      54      1      0.0000      2.000      12.000      0.000
74      55      1      0.0000      2.000      13.000      0.000
75      56      1      0.0000      2.000      14.000      0.000
76      57      2      0.0000      2.000      15.000      0.000
77      58      2      0.0000      2.000      16.000      0.000
78      59      2      0.0000      2.000      17.000      0.000
79      60      2      0.0000      2.000      18.000      0.000
80      61      2      0.0000      2.000      19.000      0.000
81      62      1      0.0000      3.000      0.000      0.000
82      63      1      0.0000      3.000      1.000      0.000
83      64      1      0.0000      3.000      2.000      0.000
84      65      1      0.0000      3.000      3.000      0.000
85      66      1      0.0000      3.000      4.000      0.000
86      67      2      0.0000      3.000      5.000      0.000
87      68      2      0.0000      3.000      6.000      0.000
88      69      2      0.0000      3.000      7.000      0.000
89      70      2      0.0000      3.000      8.000      0.000
90      71      2      0.0000      3.000      9.000      0.000
91      72      1      0.0000      3.000      10.000      0.000
92      73      1      0.0000      3.000      11.000      0.000
93      74      1      0.0000      3.000      12.000      0.000
94      75      1      0.0000      3.000      13.000      0.000
95      76      1      0.0000      3.000      14.000      0.000
96      77      2      0.0000      3.000      15.000      0.000
97      78      2      0.0000      3.000      16.000      0.000
98      79      2      0.0000      3.000      17.000      0.000
99      80      2      0.0000      3.000      18.000      0.000
100      81      2      0.0000      3.000      19.000      0.000
101      82      1      0.0000      4.000      0.000      0.000
102      83      1      0.0000      4.000      1.000      0.000
103      84      1      0.0000      4.000      2.000      0.000
104      85      1      0.0000      4.000      3.000      0.000
105      86      1      0.0000      4.000      4.000      0.000
106      87      2      0.0000      4.000      5.000      0.000
107      88      2      0.0000      4.000      6.000      0.000
108      89      2      0.0000      4.000      7.000      0.000
109      90      2      0.0000      4.000      8.000      0.000
110      91      2      0.0000      4.000      9.000      0.000
111      92      1      0.0000      4.000      10.000      0.000
112      93      1      0.0000      4.000      11.000      0.000
113      94      1      0.0000      4.000      12.000      0.000
114      95      1      0.0000      4.000      13.000      0.000
115      96      1      0.0000      4.000      14.000      0.000
116      97      2      0.0000      4.000      15.000      0.000
117      98      2      0.0000      4.000      16.000      0.000
118      99      2      0.0000      4.000      17.000      0.000
119      100      2      0.0000      4.000      18.000      0.000
120      101      2      0.0000      4.000      19.000      0.000
121      102      2      0.0000      5.000      0.000      0.000
122      103      2      0.0000      5.000      1.000      0.000
123      104      2      0.0000      5.000      2.000      0.000
124      105      2      0.0000      5.000      3.000      0.000
125      106      2      0.0000      5.000      4.000      0.000
126      107      1      0.0000      5.000      5.000      0.000
127      108      1      0.0000      5.000      6.000      0.000
128      109      1      0.0000      5.000      7.000      0.000
129      110      1      0.0000      5.000      8.000      0.000
130      111      1      0.0000      5.000      9.000      0.000
131      112      2      0.0000      5.000      10.000      0.000
132      113      2      0.0000      5.000      11.000      0.000
133      114      2      0.0000      5.000      12.000      0.000
134      115      2      0.0000      5.000      13.000      0.000
135      116      2      0.0000      5.000      14.000      0.000
136      117      1      0.0000      5.000      15.000      0.000
137      118      1      0.0000      5.000      16.000      0.000
138      119      1      0.0000      5.000      17.000      0.000
139      120      1      0.0000      5.000      18.000      0.000
140      121      1      0.0000      5.000      19.000      0.000
141      122      2      0.0000      6.000      0.000      0.000
142      123      2      0.0000      6.000      1.000      0.000
143      124      2      0.0000      6.000      2.000      0.000
144      125      2      0.0000      6.000      3.000      0.000
145      126      2      0.0000      6.000      4.000      0.000
146      127      1      0.0000      6.000      5.000      0.000
147      128      1      0.0000      6.000      6.000      0.000
148      129      1      0.0000      6.000      7.000      0.000
149      130      1      0.0000      6.000      8.000      0.000
150      131      1      0.0000      6.000      9.000      0.000
151      132      2      0.0000      6.000      10.000      0.000
152      133      2      0.0000      6.000      11.000      0.000
153      134      2      0.0000      6.000      12.000      0.000
154      135      2      0.0000      6.000      13.000      0.000
155      136      2      0.0000      6.000      14.000      0.000
156      137      1      0.0000      6.000      15.000      0.000
157      138      1      0.0000      6.000      16.000      0.000
158      139      1      0.0000      6.000      17.000      0.000
159      140      1      0.0000      6.000      18.000      0.000
160      141      1      0.0000      6.000      19.000      0.000
161      142      2      0.0000      7.000      0.000      0.000
162      143      2      0.0000      7.000      1.000      0.000
163      144      2      0.0000      7.000      2.000      0.000
164      145      2      0.0000      7.000      3.000      0.000
165      146      2      0.0000      7.000      4.000      0.000
166      147      1      0.0000      7.000      5.000      0.000
167      148      1      0.0000      7.000      6.000      0.000
168      149      1      0.0000      7.000      7.000      0.000
169      150      1      0.0000      7.000      8.000      0.000
170      151      1      0.0000      7.000      9.000      0.000
171      152      2      0.0000      7.000      10.000      0.000
172      153      2      0.0000      7.000      11.000      0.000
173      154      2      0.0000      7.000      12.000      0.000
174      155      2      0.0000      7.000      13.000      0.000
175      156      2      0.0000      7.000      14.000      0.000
176      157      1      0.0000      7.000      15.000      0.000
177      158      1      0.0000      7.000      16.000      0.000
178      159      1      0.0000      7.000      17.000      0.000
179      160      1      0.0000      7.000      18.000      0.000
180      161      1      0.0000      7.000      19.000      0.000
181      162      2      0.0000      8.000      0.000      0.000
182      163      2      0.0000      8.000      1.000      0.000
183      164      2      0.0000      8.000      2.000      0.000
184      165      2      0.0000      8.000      3.000      0.000
185      166      2      0.0000      8.000      4.000      0.000
186      167      1      0.0000      8.000      5.000      0.000
187      168      1      0.0000      8.000      6.000      0.000
188      169      1      0.0000      8.000      7.000      0.000
189      170      1      0.0000      8.000      8.000      0.000
190      171      1      0.0000      8.000      9.000      0.000
191      172      2      0.0000      8.000      10.000      0.000
192      173      2      0.0000      8.000      11.000      0.000
193      174      2      0.0000      8.000      12.000      0.000
194      175      2      0.0000      8.000      13.000      0.000
195      176      2      0.0000      8.000      14.000      0.000
196      177      1      0.0000      8.000      15.000      0.000
197      178      1      0.0000      8.000      16.000      0.000
198      179      1      0.0000      8.000      17.000      0.000
199      180      1      0.0000      8.000      18.000      0.000
200      181      1      0.0000      8.000      19.000      0.000
201      182      2      0.0000      9.000      0.000      0.000
202      183      2      0.0000      9.000      1.000      0.000
203      184      2      0.0000      9.000      2.000      0.000
204      185      2      0.0000      9.000      3.000      0.000
205      186      2      0.0000      9.000      4.000      0.000
206      187      1      0.0000      9.000      5.000      0.000
207      188      1      0.0000      9.000      6.000      0.000
208      189      1      0.0000      9.000      7.000      0.000
209      190      1      0.0000      9.000      8.000      0.000
210      191      1      0.0000      9.000      9.000      0.000
211      192      2      0.0000      9.000      10.000      0.000
212      193      2      0.0000      9.000      11.000      0.000
213      194      2      0.0000      9.000      12.000      0.000
214      195      2      0.0000      9.000      13.000      0.000
215      196      2      0.0000      9.000      14.000      0.000
216      197      1      0.0000      9.000      15.000      0.000
217      198      1      0.0000      9.000      16.000      0.000
218      199      1      0.0000      9.000      17.000      0.000
219      200      1      0.0000      9.000      18.000      0.000
220      201      1      0.0000      9.000      19.000      0.000
221      202      1      0.0000      10.000      0.000      0.000
222      203      1      0.0000      10.000      1.000      0.000
223      204      1      0.0000      10.000      2.000      0.000
224      205      1      0.0000      10.000      3.000      0.000
225      206      1      0.0000      10.000      4.000      0.000
226      207      2      0.0000      10.000      5.000      0.000
227      208      2      0.0000      10.000      6.000      0.000
228      209      2      0.0000      10.000      7.000      0.000
229      210      2      0.0000      10.000      8.000      0.000
230      211      2      0.0000      10.000      9.000      0.000
231      212      1      0.0000      10.000      10.000      0.000
232      213      1      0.0000      10.000      11.000      0.000
233      214      1      0.0000      10.000      12.000      0.000
234      215      1      0.0000      10.000      13.000      0.000
235      216      1      0.0000      10.000      14.000      0.000
236      217      2      0.0000      10.000      15.000      0.000
237      218      2      0.0000      10.000      16.000      0.000
238      219      2      0.0000      10.000      17.000      0.000
239      220      2      0.0000      10.000      18.000      0.000
240      221      2      0.0000      10.000      19.000      0.000
241      222      1      0.0000      11.000      0.000      0.000
242      223      1      0.0000      11.000      1.000      0.000
243      224      1      0.0000      11.000      2.000      0.000
244      225      1      0.0000      11.000      3.000      0.000
245      226      1      0.0000      11.000      4.000      0.000
246      227      2      0.0000      11.000      5.000      0.000
247      228      2      0.0000      11.000      6.000      0.000
248      229      2      0.0000      11.000      7.000      0.000
249      230      2      0.0000      11.000      8.000      0.000
250      231      2      0.0000      11.000      9.000      0.000
251      232      1      0.0000      11.000      10.000      0.000
252      233      1      0.0000      11.000      11.000      0.000
253      234      1      0.0000      11.000      12.000      0.000
254      235      1      0.0000      11.000      13.000      0.000
255      236      1      0.0000      11.000      14.000      0.000
256      237      2      0.0000      11.000      15.000      0.000
257      238      2      0.0000      11.000      16.000      0.000
258      239      2      0.0000      11.000      17.000      0.000
259      240      2      0.0000      11.000      18.000      0.000
260      241      2      0.0000      11.000      19.000      0.000
261      242      1      0.0000      12.000      0.000      0.000
262      243      1      0.0000      12.000      1.000      0.000
263      244      1      0.0000      12.000      2.000      0.000
264      245      1      0.0000      12.000      3.000      0.000
265      246      1      0.0000      12.000      4.000      0.000
266      247      2      0.0000      12.000      5.000      0.000
267      248      2      0.0000      12.000      6.000      0.000
268      249      2      0.0000      12.000      7.000      0.000
269      250      2      0.0000      12.000      8.000      0.000
270      251      2      0.0000      12.000      9.000      0.000
271      252      1      0.0000      12.000      10.000      0.000
272      253      1      0.0000      12.000      11.000      0.000
273      254      1      0.0000      12.000      12.000      0.000
274      255      1      0.0000      12.000      13.000      0.000
275      256      1      0.0000      12.000      14.000      0.000
276      257      2      0.0000      12.000      15.000      0.000
277      258      2      0.0000      12.000      16.000      0.000
278      259      2      0.0000      12.000      17.000      0.000
279      260      2      0.0000      12.000      18.000      0.000
280      261      2      0.0000      12.000      19.000      0.000
281      262      1      0.0000      13.000      0.000      0.000
282      263      1      0.0000      13.000      1.000      0.000
283      264      1      0.0000      13.000      2.000      0.000
284      265      1      0.0000      13.000      3.000      0.000
285      266      1      0.0000      13.000      4.000      0.000
286      267      2      0.0000      13.000      5.000      0.000
287      268      2      0.0000      13.000      6.000      0.000
288      269      2      0.0000      13.000      7.000      0.000
289      270      2      0.0000      13.000      8.000      0.000
290      271      2      0.0000      13.000      9.000      0.000
291      272      1      0.0000      13.000      10.000      0.000
292      273      1      0.0000      13.000      11.000      0.000
293      274      1      0.0000      13.000      12.000      0.000
294      275      1      0.0000      13.000      13.000      0.000
295      276      1      0.0000      13.000      14.000      0.000
296      277      2      0.0000      13.000      15.000      0.000
297      278      2      0.0000      13.000      16.000      0.000
298      279      2      0.0000      13.000      17.000      0.000
299      280      2      0.0000      13.000      18.000      0.000
300      281      2      0.0000      13.000      19.000      0.000
301      282      1      0.0000      14.000      0.000      0.000
302      283      1      0.0000      14.000      1.000      0.000
303      284      1      0.0000      14.000      2.000      0.000
304      285      1      0.0000      14.000      3.000      0.000
305      286      1      0.0000      14.000      4.000      0.000
306      287      2      0.0000      14.000      5.000      0.000
307      288      2      0.0000      14.000      6.000      0.000
308      289      2      0.0000      14.000      7.000      0.000
309      290      2      0.0000      14.000      8.000      0.000
310      291      2      0.0000      14.000      9.000      0.000
311      292      1      0.0000      14.000      10.000      0.000
312      293      1      0.0000      14.000      11.000      0.000
313      294      1      0.0000      14.000      12.000      0.000
314      295      1      0.0000      14.000      13.000      0.000
315      296      1      0.0000      14.000      14.000      0.000
316      297      2      0.0000      14.000      15.000      0.000
317      298      2      0.0000      14.000      16.000      0.000
318      299      2      0.0000      14.000      17.000      0.000
319      300      2      0.0000      14.000      18.000      0.000
320      301      2      0.0000      14.000      19.000      0.000
321      302      2      0.0000      15.000      0.000      0.000
322      303      2      0.0000      15.000      1.000      0.000
323      304      2      0.0000      15.000      2.000      0.000
324      305      2      0.0000      15.000      3.000      0.000
325      306      2      0.0000      15.000      4.000      0.000
326      307      1      0.0000      15.000      5.000      0.000
327      308      1      0.0000      15.000      6.000      0.000
328      309      1      0.0000      15.000      7.000      0.000
329      310      1      0.0000      15.000      8.000      0.000
330      311      1      0.0000      15.000      9.000      0.000
331      312      2      0.0000      15.000      10.000      0.000
332      313      2      0.0000      15.000      11.000      0.000
333      314      2      0.0000      15.000      12.000      0.000
334      315      2      0.0000      15.000      13.000      0.000
335      316      2      0.0000      15.000      14.000      0.000
336      317      1      0.0000      15.000      15.000      0.000
337      318      1      0.0000      15.000      16.000      0.000
338      319      1      0.0000      15.000      17.000      0.000
339      320      1      0.0000      15.000      18.000      0.000
340      321      1      0.0000      15.000      19.000      0.000
341      322      2      0.0000      16.000      0.000      0.000
342      323      2      0.0000      16.000      1.000      0.000
343      324      2      0.0000      16.000      2.000      0.000
344      325      2      0.0000      16.000      3.000      0.000
345      326      2      0.0000      16.000      4.000      0.000
346      327      1      0.0000      16.000      5.000      0.000
347      328      1      0.0000      16.000      6.000      0.000
348      329      1      0.0000      16.000      7.000      0.000
349      330      1      0.0000      16.000      8.000      0.000
350      331      1      0.0000      16.000      9.000      0.000
351      332      2      0.0000      16.000      10.000      0.000
352      333      2      0.0000      16.000      11.000      0.000
353      334      2      0.0000      16.000      12.000      0.000
354      335      2      0.0000      16.000      13.000      0.000
355      336      2      0.0000      16.000      14.000      0.000
356      337      1      0.0000      16.000      15.000      0.000
357      338      1      0.0000      16.000      16.000      0.000
358      339      1      0.0000      16.000      17.000      0.000
359      340      1      0.0000      16.000      18.000      0.000
360      341      1      0.0000      16.000      19.000      0.000
361      342      2      0.0000      17.000      0.000      0.000
362      343      2      0.0000      17.000      1.000      0.000
363      344      2      0.0000      17.000      2.000      0.000
364      345      2      0.0000      17.000      3.000      0.000
365      346      2      0.0000      17.000      4.000      0.000
366      347      1      0.0000      17.000      5.000      0.000
367      348      1      0.0000      17.000      6.000      0.000
368      349      1      0.0000      17.000      7.000      0.000
369      350      1      0.0000      17.000      8.000      0.000
370      351      1      0.0000      17.000      9.000      0.000
371      352      2      0.0000      17.000      10.000      0.000
372      353      2      0.0000      17.000      11.000      0.000
373      354      2      0.0000      17.000      12.000      0.000
374      355      2      0.0000      17.000      13.000      0.000
375      356      2      0.0000      17.000      14.000      0.000
376      357      1      0.0000      17.000      15.000      0.000
377      358      1      0.0000      17.000      16.000      0.000
378      359      1      0.0000      17.000      17.000      0.000
379      360      1      0.0000      17.000      18.000      0.000
380      361      1      0.0000      17.000      19.000      0.000
381      362      2      0.0000      18.000      0.000      0.000
382      363      2      0.0000      18.000      1.000      0.000
383      364      2      0.0000      18.000      2.000      0.000
384      365      2      0.0000      18.000      3.000      0.000
385      366      2      0.0000      18.000      4.000      0.000
386      367      1      0.0000      18.000      5.000      0.000
387      368      1      0.0000      18.000      6.000      0.000
388      369      1      0.0000      18.000      7.000      0.000
389      370      1      0.0000      18.000      8.000      0.000
390      371      1      0.0000      18.000      9.000      0.000
391      372      2      0.0000      18.000      10.000      0.000
392      373      2      0.0000      18.000      11.000      0.000
393      374      2      0.0000      18.000      12.000      0.000
394      375      2      0.0000      18.000      13.000      0.000
395      376      2      0.0000      18.000      14.000      0.000
396      377      1      0.0000      18.000      15.000      0.000
397      378      1      0.0000      18.000      16.000      0.000
398      379      1      0.0000      18.000      17.000      0.000
399      380      1      0.0000      18.000      18.000      0.000
400      381      1      0.0000      18.000      19.000      0.000
401      382      2      0.0000      19.000      0.000      0.000
402      383      2      0.0000      19.000      1.000      0.000
403      384      2      0.0000      19.000      2.000      0.000
404      385      2      0.0000      19.000      3.000      0.000
405      386      2      0.0000      19.000      4.000      0.000
406      387      1      0.0000      19.000      5.000      0.000
407      388      1      0.0000      19.000      6.000      0.000
408      389      1      0.0000      19.000      7.000      0.000
409      390      1      0.0000      19.000      8.000      0.000
410      391      1      0.0000      19.000      9.000      0.000
411      392      2      0.0000      19.000      10.000      0.000
412      393      2      0.0000      19.000      11.000      0.000
413      394      2      0.0000      19.000      12.000      0.000
414      395      2      0.0000      19.000      13.000      0.000
415      396      2      0.0000      19.000      14.000      0.000
416      397      1      0.0000      19.000      15.000      0.000
417      398      1      0.0000      19.000      16.000      0.000
418      399      1      0.0000      19.000      17.000      0.000
419      400      1      0.0000      19.000      18.000      0.000
420      401      1      0.0000      19.000      19.000      0.000


Bonds

1     1     1    2
2     1     2    3
3     1     3    4
4     1     4    5
5     1     5    6
6     1     6    7
7     1     7    8
8     1     8    9
9     1     9    10
10     1     10    11
11     1     11    12
12     1     12    13
13     1     13    14
14     1     14    15
15     1     15    16
16     1     16    17
17     1     17    18
18     1     18    19
19     1     19    20
